HOOMD-blue 0.11.0-unknown
Compiled: Mon Sep 10 22:11:49 PDT 2012
Copyright 2008-2011 Ames Laboratory Iowa State University and the Regents of the University of Michigan
-----
All publications and presentations based on HOOMD-blue, including any reports
or published results obtained, in whole or in part, with HOOMD-blue, will
acknowledge its use according to the terms posted at the time of submission on:
http://codeblue.umich.edu/hoomd-blue/citations.html

At a minimum, this includes citations of:
* http://codeblue.umich.edu/hoomd-blue/
and:
* Joshua A. Anderson, Chris D. Lorenz, and Alex Travesset - 'General
  Purpose Molecular Dynamics Fully Implemented on Graphics Processing
  Units', Journal of Computational Physics 227 (2008) 5342-5359
-----
query.hoomd.txt:003  |  system = init.read_xml(filename="start.xml")
HOOMD-blue is running on the following GPU:
 [2]       GeForce GTX 580  16 SM_2.0 @ 1.54 GHz, 1535 MiB DRAM
Reading start.xml...
Notice: Parser for node <acceleration> not defined, ignoring
--- hoomd_xml file read summary
1468 positions at timestep 2100000
1468 images
1468 velocities
1468 masses
1468 diameters
1 particle types
1468 particle body values
1468 charges
1468 orientations
notice(2): Group "all" created containing 1468 particles
query.hoomd.txt:006  |  table = pair.table(width=pot_width)
query.hoomd.txt:007  |  table.set_from_file('1', '1', filename='/home/tcmoore3/monatomic_LJ/opt_case7/potentials/pot.t1t1.txt')
notice(2): -- Neighborlist exclusion statistics -- :
notice(2): Particles with 0 exclusions             : 1468
notice(2): Neighbors excluded by diameter (slj)    : no
notice(2): Neighbors excluded when in the same body: no
** starting run **
Time 00:00:00 | Step 2105000 / 2105000 | TPS 5253.33 | ETA 00:00:00
Average TPS: 5253.04
---------
-- Neighborlist stats:
138 normal updates / 18 forced updates / 0 dangerous updates
n_neigh_min: 18 / n_neigh_max: 44 / n_neigh_avg: 30.0068
shortest rebuild period: 28
** run complete **
query.hoomd.txt:017  |  output_dcd = dump.dcd(filename="query.dcd", period=1e3, overwrite=True)
query.hoomd.txt:018  |  run(50000)
** starting run **
Time 00:00:07 | Step 2155000 / 2155000 | TPS 7905.24 | ETA 00:00:00
Average TPS: 7905.21
---------
-- Neighborlist stats:
1372 normal updates / 168 forced updates / 0 dangerous updates
n_neigh_min: 13 / n_neigh_max: 47 / n_neigh_avg: 30.6376
shortest rebuild period: 27
** run complete **
query.hoomd.txt:020  |  output_xml = dump.xml()
query.hoomd.txt:021  |  output_xml.set_params(all=True)
query.hoomd.txt:022  |  output_xml.write(filename="final.xml")
