HOOMD-blue v2.1.7 DOUBLE HPMC_MIXED SSE SSE2 SSE3 
Compiled: 05/11/17
Copyright 2009-2016 The Regents of the University of Michigan.
-----
You are using HOOMD-blue. Please cite the following:
* J A Anderson, C D Lorenz, and A Travesset. "General purpose molecular dynamics
  simulations fully implemented on graphics processing units", Journal of
  Computational Physics 227 (2008) 5342--5359
* J Glaser, T D Nguyen, J A Anderson, P Liu, F Spiga, J A Millan, D C Morse, and
  S C Glotzer. "Strong scaling of general-purpose molecular dynamics simulations
  on GPUs", Computer Physics Communications 192 (2015) 97--107
-----
HOOMD-blue is running on the CPU
run.py:007  |  system = read_xml(filename="start.hoomdxml", wrap_coordinates=True)
notice(2): Reading start.hoomdxml...
notice(2): No version specified in hoomd_xml root node: assuming 1.0
notice(2): --- hoomd_xml file read summary
notice(2): 1024 positions at timestep 0
notice(2): 1024 masses
notice(2): 1 particle types
notice(2): 1024 charges
notice(2): Group "all" created containing 1024 particles
run.py:011  |  nl = hoomd.md.nlist.cell()
run.py:012  |  table = hoomd.md.pair.table(width=pot_width, nlist=nl)
run.py:015  |  table.set_from_file('C3', 'C3', filename='/Users/davyyue/Research/msibi/msibi/tutorials/propane/potentials/pot.C3-C3.txt')
run.py:016  |  all = hoomd.group.all()
run.py:017  |  nvt_int = hoomd.md.integrate.langevin(group=all, kT=T_final, seed=1)
notice(2): integrate.langevin/bd is using specified gamma values
run.py:018  |  hoomd.md.integrate.mode_standard(dt=0.001)
run.py:020  |  hoomd.run(1e2)
notice(2): -- Neighborlist exclusion statistics -- :
notice(2): Particles with 0 exclusions             : 1024
notice(2): Neighbors included by diameter          : no
notice(2): Neighbors excluded when in the same body: no
** starting run **
Time 00:00:01 | Step 100 / 100 | TPS 74.8565 | ETA 00:00:00
Average TPS: 74.8519
---------
-- Neighborlist stats:
0 normal updates / 2 forced updates / 0 dangerous updates
n_neigh_min: 0 / n_neigh_max: 77 / n_neigh_avg: 37.0996
shortest rebuild period: 100
-- Cell list stats:
Dimension: 3, 3, 3
n_min    : 34 / n_max: 43 / n_avg: 37.9259
** run complete **
run.py:021  |  output_dcd = hoomd.dump.dcd(filename='query.dcd', period=100, overwrite=True)
run.py:022  |  hoomd.run(1e4)
** starting run **
Time 00:00:11 | Step 2492 / 10100 | TPS 239.011 | ETA 00:00:31
Time 00:00:21 | Step 4808 / 10100 | TPS 231.556 | ETA 00:00:22
Time 00:00:31 | Step 7073 / 10100 | TPS 225.942 | ETA 00:00:13
Time 00:00:41 | Step 9401 / 10100 | TPS 232.523 | ETA 00:00:03
Time 00:00:44 | Step 10100 / 10100 | TPS 238.572 | ETA 00:00:00
Average TPS: 232.686
---------
-- Neighborlist stats:
88 normal updates / 101 forced updates / 0 dangerous updates
n_neigh_min: 0 / n_neigh_max: 79 / n_neigh_avg: 38.2168
shortest rebuild period: 68
-- Cell list stats:
Dimension: 3, 3, 3
n_min    : 32 / n_max: 46 / n_avg: 37.9259
** run complete **
