LAMMPS data file. CGCMM style. atom_style full generated by VMD/TopoTools v1.6 on Tue Apr 11 13:31:43 CDT 2017
 3000 atoms
 0 bonds
 0 angles
 0 dihedrals
 0 impropers
 1 atom types
 0 bond types
 0 angle types
 0 dihedral types
 0 improper types
 -1.007000 48.993000  xlo xhi
 -1.003500 48.996500  ylo yhi
 -0.996501 49.003499  zlo zhi

# Pair Coeffs
#
# 1  C

 Masses

 1 12.011000 # C

 Atoms

1 1 1 0.000000 0.052000 24.525000 30.487000 # C C
2 2 1 0.000000 10.618000 8.662000 43.171001 # C C
3 3 1 0.000000 29.736000 34.547001 4.210000 # C C
4 4 1 0.000000 26.683001 18.802000 41.276001 # C C
5 5 1 0.000000 25.068001 5.087000 28.334999 # C C
6 6 1 0.000000 29.546000 32.367001 25.458000 # C C
7 7 1 0.000000 21.002001 34.652000 40.875000 # C C
8 8 1 0.000000 21.639000 24.709999 3.101000 # C C
9 9 1 0.000000 9.807000 20.646000 31.399000 # C C
10 10 1 0.000000 17.695000 32.875999 22.190001 # C C
11 11 1 0.000000 19.913000 22.121000 38.313999 # C C
12 12 1 0.000000 6.105000 42.001999 16.230000 # C C
13 13 1 0.000000 27.292000 29.634001 5.335000 # C C
14 14 1 0.000000 36.035000 43.101002 34.910000 # C C
15 15 1 0.000000 37.862999 11.449000 45.368999 # C C
16 16 1 0.000000 27.999001 6.055000 29.563999 # C C
17 17 1 0.000000 6.302000 36.688000 10.112000 # C C
18 18 1 0.000000 5.612000 3.227000 12.048000 # C C
19 19 1 0.000000 11.262000 46.000999 9.511000 # C C
20 20 1 0.000000 25.656000 16.596001 13.851000 # C C
21 21 1 0.000000 5.687000 11.937000 43.737000 # C C
22 22 1 0.000000 22.107000 2.686000 26.707001 # C C
23 23 1 0.000000 10.045000 30.037001 43.305000 # C C
24 24 1 0.000000 23.896999 36.661999 12.431000 # C C
25 25 1 0.000000 5.980000 43.499001 35.000000 # C C
26 26 1 0.000000 3.375000 46.000000 9.601000 # C C
27 27 1 0.000000 34.096001 28.214001 25.363001 # C C
28 28 1 0.000000 3.405000 26.452999 15.370000 # C C
29 29 1 0.000000 15.748000 26.915001 13.119000 # C C
30 30 1 0.000000 13.745000 27.381001 33.436001 # C C
31 31 1 0.000000 22.400999 3.460000 17.778000 # C C
32 32 1 0.000000 28.461000 40.741001 45.042999 # C C
33 33 1 0.000000 12.307000 1.536000 6.424000 # C C
34 34 1 0.000000 10.434000 13.278000 16.066000 # C C
35 35 1 0.000000 12.399000 36.037998 11.206000 # C C
36 36 1 0.000000 5.577000 28.517000 23.927999 # C C
37 37 1 0.000000 39.337002 5.213000 24.816000 # C C
38 38 1 0.000000 39.720001 28.990999 15.839000 # C C
39 39 1 0.000000 38.582001 3.122000 22.289000 # C C
40 40 1 0.000000 18.346001 34.077999 3.300000 # C C
41 41 1 0.000000 1.416000 44.905998 6.478000 # C C
42 42 1 0.000000 15.660000 45.535999 34.186001 # C C
43 43 1 0.000000 27.983000 10.733000 8.642000 # C C
44 44 1 0.000000 44.444000 35.564999 45.146000 # C C
45 45 1 0.000000 39.334999 9.227000 17.740000 # C C
46 46 1 0.000000 9.346000 5.847000 3.550000 # C C
47 47 1 0.000000 39.654999 8.658000 7.121000 # C C
48 48 1 0.000000 2.280000 31.722000 11.442000 # C C
49 49 1 0.000000 7.594000 43.624001 25.422001 # C C
50 50 1 0.000000 17.745001 7.523000 37.021000 # C C
51 51 1 0.000000 42.846001 19.601000 9.471000 # C C
52 52 1 0.000000 17.912001 13.615000 30.004000 # C C
53 53 1 0.000000 24.566000 0.152000 39.396999 # C C
54 54 1 0.000000 25.754000 14.816000 16.679001 # C C
55 55 1 0.000000 2.156000 42.422001 41.462002 # C C
56 56 1 0.000000 42.095001 28.049999 45.956001 # C C
57 57 1 0.000000 27.780001 18.132000 -0.000000 # C C
58 58 1 0.000000 15.445000 43.749001 0.360000 # C C
59 59 1 0.000000 18.597000 36.584000 42.957001 # C C
60 60 1 0.000000 10.367000 9.658000 7.657000 # C C
61 61 1 0.000000 45.853001 28.226999 30.170000 # C C
62 62 1 0.000000 16.459999 27.995001 -0.000000 # C C
63 63 1 0.000000 6.995000 5.826000 13.537000 # C C
64 64 1 0.000000 11.218000 17.035000 16.132000 # C C
65 65 1 0.000000 26.021000 25.500000 20.555000 # C C
66 66 1 0.000000 14.662000 8.045000 35.966000 # C C
67 67 1 0.000000 27.815001 41.944000 38.275002 # C C
68 68 1 0.000000 41.473000 23.635000 36.952999 # C C
69 69 1 0.000000 15.212000 6.544000 16.291000 # C C
70 70 1 0.000000 33.691002 2.219000 15.010000 # C C
71 71 1 0.000000 25.166000 11.578000 16.924000 # C C
72 72 1 0.000000 41.574001 17.877001 15.234000 # C C
73 73 1 0.000000 42.880001 40.983002 9.757000 # C C
74 74 1 0.000000 15.681000 6.179000 24.573000 # C C
75 75 1 0.000000 21.007999 2.381000 22.089001 # C C
76 76 1 0.000000 31.922001 23.104000 13.746000 # C C
77 77 1 0.000000 34.007000 3.686000 35.097000 # C C
78 78 1 0.000000 0.006000 5.552000 16.843000 # C C
79 79 1 0.000000 32.066002 42.653999 2.414000 # C C
80 80 1 0.000000 7.364000 40.166000 18.697001 # C C
81 81 1 0.000000 2.036000 34.606998 9.823000 # C C
82 82 1 0.000000 23.077999 37.321999 46.005001 # C C
83 83 1 0.000000 43.296001 17.156000 31.934999 # C C
84 84 1 0.000000 5.942000 12.941000 28.194000 # C C
85 85 1 0.000000 3.565000 22.448999 7.169000 # C C
86 86 1 0.000000 40.655998 15.639000 30.662001 # C C
87 87 1 0.000000 34.772999 20.327000 29.709999 # C C
88 88 1 0.000000 5.005000 34.803001 20.820999 # C C
89 89 1 0.000000 35.880001 43.543999 11.779000 # C C
90 90 1 0.000000 13.582000 36.706001 25.263000 # C C
91 91 1 0.000000 35.271999 6.646000 35.821999 # C C
92 92 1 0.000000 7.014000 36.943001 19.313999 # C C
93 93 1 0.000000 43.918999 9.930000 33.432999 # C C
94 94 1 0.000000 46.000000 41.902000 10.314000 # C C
95 95 1 0.000000 20.268000 10.284000 8.486000 # C C
96 96 1 0.000000 33.819000 38.224998 30.670000 # C C
97 97 1 0.000000 25.025999 39.485001 14.313000 # C C
98 98 1 0.000000 35.473000 15.889000 15.173000 # C C
99 99 1 0.000000 7.009000 0.926000 35.118000 # C C
100 100 1 0.000000 25.830999 40.166000 -0.003000 # C C
101 101 1 0.000000 26.561001 33.077000 31.645000 # C C
102 102 1 0.000000 7.322000 3.497000 30.709999 # C C
103 103 1 0.000000 0.000000 44.938999 13.764000 # C C
104 104 1 0.000000 29.393999 17.167000 35.076000 # C C
105 105 1 0.000000 1.510000 37.181000 14.583000 # C C
106 106 1 0.000000 31.294001 16.625000 32.418999 # C C
107 107 1 0.000000 15.435000 10.298000 10.847000 # C C
108 108 1 0.000000 32.791000 11.137000 6.016000 # C C
109 109 1 0.000000 18.389000 25.315001 34.007999 # C C
110 110 1 0.000000 0.114000 16.504000 16.705999 # C C
111 111 1 0.000000 31.264999 45.057999 8.919000 # C C
112 112 1 0.000000 23.462999 30.768999 36.812000 # C C
113 113 1 0.000000 36.943001 11.951000 28.348000 # C C
114 114 1 0.000000 8.879000 33.513000 40.355000 # C C
115 115 1 0.000000 37.313999 -0.000000 0.161000 # C C
116 116 1 0.000000 6.682000 -0.000000 18.539000 # C C
117 117 1 0.000000 19.018000 38.102001 25.430000 # C C
118 118 1 0.000000 9.717000 43.241001 3.304000 # C C
119 119 1 0.000000 5.429000 43.568001 10.470000 # C C
120 120 1 0.000000 25.634001 35.235001 45.990002 # C C
121 121 1 0.000000 21.587000 24.214001 7.244000 # C C
122 122 1 0.000000 3.352000 30.261000 28.889999 # C C
123 123 1 0.000000 36.271999 0.182000 27.908001 # C C
124 124 1 0.000000 32.603001 8.409000 28.577000 # C C
125 125 1 0.000000 8.815000 5.706000 16.868999 # C C
126 126 1 0.000000 40.683998 14.063000 24.263000 # C C
127 127 1 0.000000 40.404999 46.000000 0.898000 # C C
128 128 1 0.000000 21.556000 27.086000 5.620000 # C C
129 129 1 0.000000 13.192000 39.361000 7.395000 # C C
130 130 1 0.000000 27.032000 16.431999 26.320999 # C C
131 131 1 0.000000 14.491000 18.309000 37.931000 # C C
132 132 1 0.000000 27.917999 43.181999 15.161000 # C C
133 133 1 0.000000 5.705000 20.771999 24.073999 # C C
134 134 1 0.000000 12.152000 32.745998 33.303001 # C C
135 135 1 0.000000 27.695999 7.382000 11.597000 # C C
136 136 1 0.000000 18.886999 18.785000 11.260000 # C C
137 137 1 0.000000 30.599001 3.213000 40.078999 # C C
138 138 1 0.000000 32.993999 10.193000 42.903999 # C C
139 139 1 0.000000 42.860001 8.194000 1.883000 # C C
140 140 1 0.000000 15.822000 35.840000 33.285999 # C C
141 141 1 0.000000 21.212999 7.624000 35.855000 # C C
142 142 1 0.000000 29.417000 8.392000 27.716000 # C C
143 143 1 0.000000 29.910000 32.048000 18.035000 # C C
144 144 1 0.000000 34.912998 19.694000 10.754000 # C C
145 145 1 0.000000 35.674999 22.715000 25.841000 # C C
146 146 1 0.000000 20.712999 21.641001 4.402000 # C C
147 147 1 0.000000 34.956001 11.954000 40.918999 # C C
148 148 1 0.000000 0.034000 6.875000 21.818001 # C C
149 149 1 0.000000 38.398998 17.032000 20.068001 # C C
150 150 1 0.000000 18.159000 19.180000 45.931999 # C C
151 151 1 0.000000 -0.002000 7.757000 33.432999 # C C
152 152 1 0.000000 16.499001 41.132999 11.592000 # C C
153 153 1 0.000000 30.450001 42.263000 34.018002 # C C
154 154 1 0.000000 5.232000 45.528000 31.781000 # C C
155 155 1 0.000000 40.615002 41.334000 37.615002 # C C
156 156 1 0.000000 32.176998 12.443000 0.009000 # C C
157 157 1 0.000000 28.282000 33.752998 9.319000 # C C
158 158 1 0.000000 7.640000 8.771000 16.530001 # C C
159 159 1 0.000000 20.358999 31.489000 3.662000 # C C
160 160 1 0.000000 3.797000 9.684000 45.236000 # C C
161 161 1 0.000000 22.474001 4.908000 46.000000 # C C
162 162 1 0.000000 6.114000 17.787001 39.485001 # C C
163 163 1 0.000000 7.115000 34.146000 43.070999 # C C
164 164 1 0.000000 11.367000 46.000000 30.740000 # C C
165 165 1 0.000000 33.401001 11.700000 30.039000 # C C
166 166 1 0.000000 39.125000 27.584999 33.485001 # C C
167 167 1 0.000000 38.249001 15.400000 10.213000 # C C
168 168 1 0.000000 39.997002 5.973000 37.396999 # C C
169 169 1 0.000000 13.929000 11.529000 0.064000 # C C
170 170 1 0.000000 17.822001 21.938000 6.049000 # C C
171 171 1 0.000000 34.854000 7.368000 10.026000 # C C
172 172 1 0.000000 26.197001 11.368000 5.489000 # C C
173 173 1 0.000000 22.065001 8.888000 13.932000 # C C
174 174 1 0.000000 20.333000 43.136002 13.209000 # C C
175 175 1 0.000000 7.294000 3.942000 24.003000 # C C
176 176 1 0.000000 13.153000 15.155000 32.376999 # C C
177 177 1 0.000000 4.539000 44.674999 38.148998 # C C
178 178 1 0.000000 24.486000 23.451000 15.539000 # C C
179 179 1 0.000000 10.206000 -0.001000 19.851999 # C C
180 180 1 0.000000 45.723000 26.273001 13.536000 # C C
181 181 1 0.000000 37.529999 40.029999 2.968000 # C C
182 182 1 0.000000 22.982000 42.349998 31.718000 # C C
183 183 1 0.000000 17.009001 41.127998 43.389000 # C C
184 184 1 0.000000 25.483000 31.350000 46.000999 # C C
185 185 1 0.000000 42.275002 44.151001 27.764999 # C C
186 186 1 0.000000 5.968000 46.002998 27.028999 # C C
187 187 1 0.000000 -0.000000 37.890999 33.994999 # C C
188 188 1 0.000000 12.342000 11.987000 30.785999 # C C
189 189 1 0.000000 43.105000 12.390000 21.489000 # C C
190 190 1 0.000000 43.750000 11.332000 10.478000 # C C
191 191 1 0.000000 11.866000 16.488001 44.811001 # C C
192 192 1 0.000000 3.534000 17.681999 46.002998 # C C
193 193 1 0.000000 33.769001 2.413000 25.811001 # C C
194 194 1 0.000000 30.247999 20.614000 20.375000 # C C
195 195 1 0.000000 27.878000 4.284000 12.775000 # C C
196 196 1 0.000000 46.000000 45.285000 45.000000 # C C
197 197 1 0.000000 31.042000 14.556000 29.854000 # C C
198 198 1 0.000000 40.407001 21.586000 40.098000 # C C
199 199 1 0.000000 5.909000 33.226002 46.000999 # C C
200 200 1 0.000000 36.286999 22.183001 37.681999 # C C
201 201 1 0.000000 31.629000 6.353000 20.959999 # C C
202 202 1 0.000000 46.000000 37.450001 42.929001 # C C
203 203 1 0.000000 26.347000 40.032001 35.653000 # C C
204 204 1 0.000000 22.737000 2.180000 9.114000 # C C
205 205 1 0.000000 41.261002 22.349001 10.896000 # C C
206 206 1 0.000000 45.617001 19.893000 23.372999 # C C
207 207 1 0.000000 9.969000 21.334000 23.028000 # C C
208 208 1 0.000000 8.881000 24.938000 45.763000 # C C
209 209 1 0.000000 -0.010000 24.716000 44.824001 # C C
210 210 1 0.000000 24.337999 4.426000 7.303000 # C C
211 211 1 0.000000 33.832001 28.003000 31.790001 # C C
212 212 1 0.000000 35.875000 15.437000 44.331001 # C C
213 213 1 0.000000 28.408001 31.358000 22.524000 # C C
214 214 1 0.000000 29.549999 6.362000 0.921000 # C C
215 215 1 0.000000 40.181999 7.857000 12.035000 # C C
216 216 1 0.000000 27.570999 19.902000 35.369999 # C C
217 217 1 0.000000 39.453999 21.377001 24.811001 # C C
218 218 1 0.000000 36.233002 46.000999 9.605000 # C C
219 219 1 0.000000 34.575001 20.204000 45.762001 # C C
220 220 1 0.000000 41.407001 19.357000 5.823000 # C C
221 221 1 0.000000 28.325001 14.183000 12.870000 # C C
222 222 1 0.000000 16.898001 23.903000 36.591999 # C C
223 223 1 0.000000 -0.001000 8.663000 37.860001 # C C
224 224 1 0.000000 46.000999 3.749000 1.474000 # C C
225 225 1 0.000000 7.756000 7.515000 19.580000 # C C
226 226 1 0.000000 35.379002 34.069000 38.826000 # C C
227 227 1 0.000000 12.184000 29.798000 31.820999 # C C
228 228 1 0.000000 12.985000 19.763000 15.566000 # C C
229 229 1 0.000000 36.976002 22.254999 40.909000 # C C
230 230 1 0.000000 35.583000 12.802000 6.903000 # C C
231 231 1 0.000000 45.568001 43.737000 14.662000 # C C
232 232 1 0.000000 34.060001 41.564999 13.693000 # C C
233 233 1 0.000000 42.639000 35.333000 7.156000 # C C
234 234 1 0.000000 20.900999 15.374000 6.353000 # C C
235 235 1 0.000000 38.146999 -0.001000 25.174999 # C C
236 236 1 0.000000 4.403000 23.360001 21.975000 # C C
237 237 1 0.000000 23.065001 21.150999 38.403999 # C C
238 238 1 0.000000 5.808000 23.757999 46.026001 # C C
239 239 1 0.000000 40.801998 14.247000 38.075001 # C C
240 240 1 0.000000 16.722000 23.118000 0.000000 # C C
241 241 1 0.000000 28.858000 7.342000 15.158000 # C C
242 242 1 0.000000 7.529000 13.796000 7.683000 # C C
243 243 1 0.000000 29.797001 27.608999 22.542000 # C C
244 244 1 0.000000 29.764000 10.015000 42.251999 # C C
245 245 1 0.000000 19.556000 41.883999 39.754002 # C C
246 246 1 0.000000 15.898000 2.590000 15.840000 # C C
247 247 1 0.000000 15.697000 2.375000 29.201000 # C C
248 248 1 0.000000 40.283001 2.203000 41.602001 # C C
249 249 1 0.000000 31.211000 25.346001 29.924000 # C C
250 250 1 0.000000 12.317000 32.839001 6.026000 # C C
251 251 1 0.000000 28.812000 4.420000 46.000000 # C C
252 252 1 0.000000 0.098000 14.635000 6.463000 # C C
253 253 1 0.000000 16.768000 12.330000 36.555000 # C C
254 254 1 0.000000 40.866001 0.617000 36.373001 # C C
255 255 1 0.000000 8.439000 21.388000 42.669998 # C C
256 256 1 0.000000 36.054001 29.253000 15.794000 # C C
257 257 1 0.000000 37.631001 5.665000 27.611000 # C C
258 258 1 0.000000 17.839001 46.000000 0.657000 # C C
259 259 1 0.000000 12.573000 20.318001 34.633999 # C C
260 260 1 0.000000 25.216999 10.084000 39.925999 # C C
261 261 1 0.000000 29.532000 33.090000 36.449001 # C C
262 262 1 0.000000 8.457000 27.277000 29.135000 # C C
263 263 1 0.000000 15.736000 14.256000 10.246000 # C C
264 264 1 0.000000 17.384001 22.393000 28.356001 # C C
265 265 1 0.000000 21.782000 10.267000 33.118000 # C C
266 266 1 0.000000 19.326000 32.764999 31.156000 # C C
267 267 1 0.000000 40.126999 38.299999 18.822001 # C C
268 268 1 0.000000 43.164001 27.816000 38.231998 # C C
269 269 1 0.000000 45.841000 35.870998 34.977001 # C C
270 270 1 0.000000 5.204000 29.209000 15.620000 # C C
271 271 1 0.000000 9.706000 16.065001 19.729000 # C C
272 272 1 0.000000 42.729000 19.745001 12.771000 # C C
273 273 1 0.000000 4.468000 46.000000 0.413000 # C C
274 274 1 0.000000 27.399000 39.902000 2.888000 # C C
275 275 1 0.000000 15.560000 20.028000 -0.000000 # C C
276 276 1 0.000000 32.587002 6.191000 40.569000 # C C
277 277 1 0.000000 25.399000 29.098000 10.193000 # C C
278 278 1 0.000000 22.711000 -0.003000 12.304000 # C C
279 279 1 0.000000 46.000000 36.487000 26.221001 # C C
280 280 1 0.000000 39.847000 21.500999 29.608000 # C C
281 281 1 0.000000 11.119000 38.563999 4.458000 # C C
282 282 1 0.000000 22.311001 11.332000 1.901000 # C C
283 283 1 0.000000 36.341000 12.750000 16.445000 # C C
284 284 1 0.000000 28.410999 31.693001 39.221001 # C C
285 285 1 0.000000 26.884001 25.011999 46.001999 # C C
286 286 1 0.000000 37.111000 18.094000 45.848000 # C C
287 287 1 0.000000 20.712999 19.033001 37.470001 # C C
288 288 1 0.000000 35.648998 6.229000 15.947000 # C C
289 289 1 0.000000 32.175999 3.225000 28.584000 # C C
290 290 1 0.000000 33.424000 8.707000 19.351000 # C C
291 291 1 0.000000 10.343000 27.892000 45.932999 # C C
292 292 1 0.000000 40.879002 43.143002 45.448002 # C C
293 293 1 0.000000 30.579000 30.521000 46.000000 # C C
294 294 1 0.000000 34.116001 3.974000 10.512000 # C C
295 295 1 0.000000 15.908000 37.500999 19.052000 # C C
296 296 1 0.000000 25.455999 0.847000 32.160999 # C C
297 297 1 0.000000 26.245001 15.625000 10.753000 # C C
298 298 1 0.000000 28.816000 18.511999 24.482000 # C C
299 299 1 0.000000 -0.001000 25.711000 35.949001 # C C
300 300 1 0.000000 28.635000 27.753000 11.104000 # C C
301 301 1 0.000000 6.174000 26.753000 9.041000 # C C
302 302 1 0.000000 27.045000 0.006000 27.653000 # C C
303 303 1 0.000000 11.502000 14.296000 1.830000 # C C
304 304 1 0.000000 13.752000 8.603000 46.001999 # C C
305 305 1 0.000000 28.535999 27.009001 31.160999 # C C
306 306 1 0.000000 33.109001 16.136999 5.819000 # C C
307 307 1 0.000000 29.188999 2.501000 27.384001 # C C
308 308 1 0.000000 36.191002 31.969000 13.894000 # C C
309 309 1 0.000000 13.320000 24.073999 41.060001 # C C
310 310 1 0.000000 43.018002 24.930000 11.964000 # C C
311 311 1 0.000000 12.624000 1.703000 37.348999 # C C
312 312 1 0.000000 30.451000 4.467000 18.521999 # C C
313 313 1 0.000000 14.181000 21.820000 25.094000 # C C
314 314 1 0.000000 28.280001 19.455999 5.520000 # C C
315 315 1 0.000000 43.237999 1.912000 20.858999 # C C
316 316 1 0.000000 29.424000 30.329000 34.644001 # C C
317 317 1 0.000000 43.235001 37.949001 24.548000 # C C
318 318 1 0.000000 12.442000 25.153999 19.809000 # C C
319 319 1 0.000000 2.154000 8.257000 8.820000 # C C
320 320 1 0.000000 17.621000 1.617000 37.462002 # C C
321 321 1 0.000000 21.771999 15.014000 24.916000 # C C
322 322 1 0.000000 5.047000 30.260000 12.495000 # C C
323 323 1 0.000000 31.593000 10.763000 33.459000 # C C
324 324 1 0.000000 29.525000 39.290001 8.422000 # C C
325 325 1 0.000000 0.000000 11.396000 7.438000 # C C
326 326 1 0.000000 36.064999 27.464001 19.898001 # C C
327 327 1 0.000000 30.566999 17.670000 18.920000 # C C
328 328 1 0.000000 13.276000 35.945999 20.931999 # C C
329 329 1 0.000000 10.864000 23.294001 -0.000000 # C C
330 330 1 0.000000 27.945000 24.931999 14.383000 # C C
331 331 1 0.000000 11.300000 4.563000 12.315000 # C C
332 332 1 0.000000 24.750000 42.910999 14.277000 # C C
333 333 1 0.000000 32.858002 43.967999 40.688999 # C C
334 334 1 0.000000 7.289000 35.255001 16.490999 # C C
335 335 1 0.000000 1.506000 2.100000 6.454000 # C C
336 336 1 0.000000 7.267000 21.049999 8.268000 # C C
337 337 1 0.000000 44.587002 42.431999 1.248000 # C C
338 338 1 0.000000 37.005001 3.051000 25.695999 # C C
339 339 1 0.000000 8.735000 15.915000 43.939999 # C C
340 340 1 0.000000 6.344000 22.583000 35.319000 # C C
341 341 1 0.000000 24.024000 17.290001 40.032001 # C C
342 342 1 0.000000 5.337000 38.354000 16.827000 # C C
343 343 1 0.000000 23.729000 22.415001 5.494000 # C C
344 344 1 0.000000 40.790001 36.033001 37.464001 # C C
345 345 1 0.000000 10.323000 27.281000 36.514000 # C C
346 346 1 0.000000 28.216999 32.082001 44.305000 # C C
347 347 1 0.000000 32.681000 29.707001 1.060000 # C C
348 348 1 0.000000 28.136000 20.343000 44.077000 # C C
349 349 1 0.000000 21.780001 20.228001 21.038000 # C C
350 350 1 0.000000 21.966000 44.734001 27.437000 # C C
351 351 1 0.000000 8.688000 38.925999 36.205002 # C C
352 352 1 0.000000 34.801998 42.019001 24.309999 # C C
353 353 1 0.000000 4.549000 40.717999 5.642000 # C C
354 354 1 0.000000 23.969999 39.622002 33.402000 # C C
355 355 1 0.000000 28.561001 45.384998 21.603001 # C C
356 356 1 0.000000 29.229000 38.266998 17.155001 # C C
357 357 1 0.000000 31.256001 18.311001 37.548000 # C C
358 358 1 0.000000 37.236000 9.246000 0.000000 # C C
359 359 1 0.000000 35.932999 3.906000 13.266000 # C C
360 360 1 0.000000 38.990002 2.676000 16.114000 # C C
361 361 1 0.000000 36.980000 21.643999 13.971000 # C C
362 362 1 0.000000 23.337999 37.570999 4.130000 # C C
363 363 1 0.000000 3.297000 33.962002 -0.000000 # C C
364 364 1 0.000000 22.684999 9.439000 42.358002 # C C
365 365 1 0.000000 39.349998 25.355000 21.261000 # C C
366 366 1 0.000000 4.307000 44.071999 14.395000 # C C
367 367 1 0.000000 -0.000000 3.991000 37.037998 # C C
368 368 1 0.000000 23.035000 31.868999 8.905000 # C C
369 369 1 0.000000 2.240000 44.313000 44.166000 # C C
370 370 1 0.000000 2.614000 19.702000 39.344002 # C C
371 371 1 0.000000 24.329000 46.000000 34.337002 # C C
372 372 1 0.000000 3.734000 4.078000 9.400000 # C C
373 373 1 0.000000 14.646000 0.595000 42.040001 # C C
374 374 1 0.000000 10.557000 34.945999 16.834999 # C C
375 375 1 0.000000 39.264999 24.671000 40.354000 # C C
376 376 1 0.000000 33.764000 27.499001 38.403999 # C C
377 377 1 0.000000 0.912000 11.048000 13.676000 # C C
378 378 1 0.000000 1.239000 40.986000 25.903999 # C C
379 379 1 0.000000 14.898000 41.285999 45.991001 # C C
380 380 1 0.000000 2.421000 14.789000 4.124000 # C C
381 381 1 0.000000 7.508000 42.662998 37.826000 # C C
382 382 1 0.000000 4.127000 25.681000 6.684000 # C C
383 383 1 0.000000 42.050999 22.504000 5.069000 # C C
384 384 1 0.000000 42.326000 27.284000 17.910000 # C C
385 385 1 0.000000 19.437000 39.264000 37.752998 # C C
386 386 1 0.000000 38.098000 45.981998 36.702000 # C C
387 387 1 0.000000 18.764000 7.320000 24.853001 # C C
388 388 1 0.000000 9.910000 38.665001 1.272000 # C C
389 389 1 0.000000 35.738998 34.423000 3.218000 # C C
390 390 1 0.000000 24.340000 35.080002 40.973000 # C C
391 391 1 0.000000 23.216000 28.594999 41.397999 # C C
392 392 1 0.000000 7.156000 18.263000 5.693000 # C C
393 393 1 0.000000 21.468000 46.000000 12.026000 # C C
394 394 1 0.000000 22.393000 17.610001 28.902000 # C C
395 395 1 0.000000 13.075000 15.012000 17.962999 # C C
396 396 1 0.000000 10.592000 15.912000 34.318001 # C C
397 397 1 0.000000 16.972000 19.207001 42.564999 # C C
398 398 1 0.000000 33.078999 37.620998 22.722000 # C C
399 399 1 0.000000 25.382999 2.413000 26.125000 # C C
400 400 1 0.000000 41.993000 11.754000 43.534000 # C C
401 401 1 0.000000 2.220000 5.380000 32.884998 # C C
402 402 1 0.000000 38.129002 18.573999 6.285000 # C C
403 403 1 0.000000 16.004999 3.986000 39.095001 # C C
404 404 1 0.000000 28.285000 39.971001 14.492000 # C C
405 405 1 0.000000 34.089001 31.160000 46.000000 # C C
406 406 1 0.000000 41.049999 36.245998 28.035000 # C C
407 407 1 0.000000 9.221000 33.478001 5.078000 # C C
408 408 1 0.000000 31.344999 33.063000 39.855999 # C C
409 409 1 0.000000 37.466999 40.827000 22.771999 # C C
410 410 1 0.000000 25.336000 2.736000 0.210000 # C C
411 411 1 0.000000 25.247999 35.101002 9.794000 # C C
412 412 1 0.000000 27.541000 43.438000 35.039001 # C C
413 413 1 0.000000 21.344000 14.737000 12.257000 # C C
414 414 1 0.000000 38.235001 8.816000 35.198002 # C C
415 415 1 0.000000 42.271999 18.351999 34.834999 # C C
416 416 1 0.000000 8.399000 24.205000 14.833000 # C C
417 417 1 0.000000 14.144000 34.119999 35.547001 # C C
418 418 1 0.000000 19.848000 42.629002 5.844000 # C C
419 419 1 0.000000 2.506000 16.806000 14.454000 # C C
420 420 1 0.000000 13.357000 16.931000 29.603001 # C C
421 421 1 0.000000 25.679001 17.464001 29.165001 # C C
422 422 1 0.000000 42.966000 8.324000 20.208000 # C C
423 423 1 0.000000 27.980000 29.854000 19.611000 # C C
424 424 1 0.000000 41.618999 22.525999 27.020000 # C C
425 425 1 0.000000 0.192000 28.087000 27.186001 # C C
426 426 1 0.000000 9.508000 42.708000 17.664000 # C C
427 427 1 0.000000 43.173000 25.287001 27.943001 # C C
428 428 1 0.000000 14.672000 13.903000 29.448000 # C C
429 429 1 0.000000 43.678001 16.406000 6.604000 # C C
430 430 1 0.000000 10.359000 18.018999 10.394000 # C C
431 431 1 0.000000 28.694000 26.225000 41.581001 # C C
432 432 1 0.000000 12.357000 38.577999 39.728001 # C C
433 433 1 0.000000 22.849001 45.460999 42.807999 # C C
434 434 1 0.000000 45.998001 38.090000 30.816999 # C C
435 435 1 0.000000 29.325001 4.299000 7.078000 # C C
436 436 1 0.000000 29.655001 45.804001 14.145000 # C C
437 437 1 0.000000 30.516001 15.539000 3.558000 # C C
438 438 1 0.000000 36.874001 32.535999 23.604000 # C C
439 439 1 0.000000 2.304000 15.383000 22.875999 # C C
440 440 1 0.000000 39.352001 10.614000 20.753000 # C C
441 441 1 0.000000 7.300000 15.343000 30.004000 # C C
442 442 1 0.000000 20.816000 17.231001 9.079000 # C C
443 443 1 0.000000 5.592000 40.466999 36.243000 # C C
444 444 1 0.000000 17.847000 21.427000 2.601000 # C C
445 445 1 0.000000 1.641000 24.139999 42.025002 # C C
446 446 1 0.000000 46.000000 5.765000 43.195000 # C C
447 447 1 0.000000 2.101000 37.941002 29.780001 # C C
448 448 1 0.000000 14.598000 1.704000 34.705002 # C C
449 449 1 0.000000 10.960000 38.588001 25.945999 # C C
450 450 1 0.000000 40.076000 22.785000 13.945000 # C C
451 451 1 0.000000 37.855999 37.382999 5.231000 # C C
452 452 1 0.000000 0.364000 2.162000 3.358000 # C C
453 453 1 0.000000 38.501999 6.028000 9.829000 # C C
454 454 1 0.000000 43.039001 21.065001 42.834000 # C C
455 455 1 0.000000 15.907000 11.059000 30.583000 # C C
456 456 1 0.000000 -0.000000 12.117000 32.251999 # C C
457 457 1 0.000000 12.381000 45.729000 33.868000 # C C
458 458 1 0.000000 26.868000 10.211000 19.507999 # C C
459 459 1 0.000000 45.990002 33.284000 28.174000 # C C
460 460 1 0.000000 21.054001 5.358000 23.513000 # C C
461 461 1 0.000000 23.287001 14.837000 21.129000 # C C
462 462 1 0.000000 33.467999 15.961000 38.235001 # C C
463 463 1 0.000000 21.323999 15.671000 3.093000 # C C
464 464 1 0.000000 5.016000 21.537001 30.083000 # C C
465 465 1 0.000000 36.993999 22.987000 28.870001 # C C
466 466 1 0.000000 35.925999 17.150999 27.400000 # C C
467 467 1 0.000000 35.189999 35.356998 23.912001 # C C
468 468 1 0.000000 3.030000 26.645000 22.979000 # C C
469 469 1 0.000000 22.535999 0.915000 43.540001 # C C
470 470 1 0.000000 42.277000 46.000000 44.542999 # C C
471 471 1 0.000000 16.694000 9.121000 14.858000 # C C
472 472 1 0.000000 31.139000 0.101000 0.108000 # C C
473 473 1 0.000000 1.074000 28.813999 35.623001 # C C
474 474 1 0.000000 41.763000 3.871000 26.605000 # C C
475 475 1 0.000000 18.742001 8.638000 44.952999 # C C
476 476 1 0.000000 5.609000 37.750000 46.000000 # C C
477 477 1 0.000000 36.942001 3.287000 36.550999 # C C
478 478 1 0.000000 45.266998 38.841999 4.802000 # C C
479 479 1 0.000000 2.118000 2.528000 11.824000 # C C
480 480 1 0.000000 2.606000 31.912001 19.563000 # C C
481 481 1 0.000000 2.557000 16.924999 11.027000 # C C
482 482 1 0.000000 21.480000 -0.004000 40.551998 # C C
483 483 1 0.000000 0.077000 6.677000 13.716000 # C C
484 484 1 0.000000 34.942001 0.802000 11.953000 # C C
485 485 1 0.000000 37.692001 13.328000 25.444000 # C C
486 486 1 0.000000 15.825000 4.956000 35.869999 # C C
487 487 1 0.000000 5.821000 40.952000 24.615000 # C C
488 488 1 0.000000 36.051998 12.878000 34.970001 # C C
489 489 1 0.000000 35.394001 -0.000000 4.533000 # C C
490 490 1 0.000000 4.272000 8.693000 36.168999 # C C
491 491 1 0.000000 6.038000 38.219002 7.200000 # C C
492 492 1 0.000000 33.741001 27.701000 17.566999 # C C
493 493 1 0.000000 35.977001 10.116000 38.375999 # C C
494 494 1 0.000000 16.209999 26.695999 44.087002 # C C
495 495 1 0.000000 1.914000 44.145000 31.326000 # C C
496 496 1 0.000000 30.579000 2.899000 24.417999 # C C
497 497 1 0.000000 0.755000 0.568000 23.238001 # C C
498 498 1 0.000000 26.096001 43.444000 40.659000 # C C
499 499 1 0.000000 34.661999 30.674000 38.463001 # C C
500 500 1 0.000000 38.664001 34.382000 8.608000 # C C
501 501 1 0.000000 35.042999 3.991000 3.965000 # C C
502 502 1 0.000000 40.672001 29.750999 31.534000 # C C
503 503 1 0.000000 44.612999 30.299999 27.878000 # C C
504 504 1 0.000000 39.401001 32.056000 14.657000 # C C
505 505 1 0.000000 40.625999 45.327999 30.370001 # C C
506 506 1 0.000000 10.822000 4.111000 42.536999 # C C
507 507 1 0.000000 38.540001 3.323000 3.676000 # C C
508 508 1 0.000000 6.482000 2.032000 26.737000 # C C
509 509 1 0.000000 19.194000 -0.004000 2.724000 # C C
510 510 1 0.000000 9.145000 31.899000 7.975000 # C C
511 511 1 0.000000 41.349998 8.997000 45.546001 # C C
512 512 1 0.000000 40.816002 44.229000 36.043999 # C C
513 513 1 0.000000 6.904000 34.445999 32.585999 # C C
514 514 1 0.000000 19.976000 21.039000 26.827000 # C C
515 515 1 0.000000 12.890000 34.096001 3.029000 # C C
516 516 1 0.000000 43.709999 42.775002 40.098000 # C C
517 517 1 0.000000 7.411000 8.008000 5.773000 # C C
518 518 1 0.000000 24.643999 5.725000 16.924999 # C C
519 519 1 0.000000 4.680000 19.076000 7.718000 # C C
520 520 1 0.000000 17.487000 6.733000 21.868000 # C C
521 521 1 0.000000 21.042999 28.014000 9.341000 # C C
522 522 1 0.000000 14.273000 14.580000 46.019001 # C C
523 523 1 0.000000 32.353001 37.736000 7.731000 # C C
524 524 1 0.000000 18.622000 7.201000 33.855999 # C C
525 525 1 0.000000 9.138000 11.645000 18.624001 # C C
526 526 1 0.000000 38.300999 34.228001 26.052999 # C C
527 527 1 0.000000 21.396999 18.627001 6.103000 # C C
528 528 1 0.000000 9.184000 3.038000 14.609000 # C C
529 529 1 0.000000 4.371000 38.402000 0.691000 # C C
530 530 1 0.000000 -0.000000 13.049000 23.237000 # C C
531 531 1 0.000000 24.665001 23.032000 22.309000 # C C
532 532 1 0.000000 27.650000 37.004002 35.116001 # C C
533 533 1 0.000000 32.161999 43.419998 43.867001 # C C
534 534 1 0.000000 25.039000 29.920000 27.496000 # C C
535 535 1 0.000000 32.134998 7.405000 34.891998 # C C
536 536 1 0.000000 39.067001 4.890000 12.954000 # C C
537 537 1 0.000000 4.685000 26.024000 37.668999 # C C
538 538 1 0.000000 32.464001 37.688999 16.853001 # C C
539 539 1 0.000000 39.823002 7.336000 20.400000 # C C
540 540 1 0.000000 18.716000 22.106001 20.747000 # C C
541 541 1 0.000000 20.127001 27.899000 23.028000 # C C
542 542 1 0.000000 1.536000 -0.000000 8.999000 # C C
543 543 1 0.000000 3.253000 17.858999 5.003000 # C C
544 544 1 0.000000 18.010000 39.316002 28.739000 # C C
545 545 1 0.000000 40.441002 16.510000 41.240002 # C C
546 546 1 0.000000 14.232000 14.447000 42.722000 # C C
547 547 1 0.000000 11.042000 9.915000 24.632000 # C C
548 548 1 0.000000 27.724001 -0.000000 11.638000 # C C